# vtk DataFile Version 3.0
eigenfunctions
ASCII

DATASET UNSTRUCTURED_GRID
POINTS 765 float
0.0 0.0 0.0 
0.0 0.05 0.0 
0.039999999999999994 0.0 0.0 
0.0 0.0 0.009999999999999998 
0.03999999999999962 0.05000000000000001 0.0 
0.0 0.05 0.009999999999999998 
0.07999999999999999 0.0 0.0 
0.04 0.0 0.01 
0.0 0.0 0.02 
0.07999999999999965 0.05 0.0 
0.04 0.05 0.01 
0.0 0.05 0.02 
0.11999999999999997 0.0 0.0 
0.07999999999999997 0.0 0.01 
0.039999999999999994 0.0 0.02 
0.11999999999999973 0.05000000000000001 0.0 
0.08 0.05 0.01 
0.03999999999999962 0.05000000000000001 0.020000000000000004 
0.15999999999999998 0.0 0.0 
0.11999999999999997 0.0 0.01 
0.07999999999999999 0.0 0.02 
0.15999999999999973 0.049999999999999996 0.0 
0.12 0.05 0.01 
0.07999999999999965 0.05 0.020000000000000004 
0.2 0.0 0.0 
0.15999999999999995 0.0 0.01 
0.11999999999999997 0.0 0.02 
0.1999999999999998 0.05 0.0 
0.16 0.05 0.01 
0.11999999999999973 0.05000000000000001 0.020000000000000004 
0.24 0.0 0.0 
0.2 0.0 0.01 
0.15999999999999998 0.0 0.020000000000000004 
0.23999999999999982 0.05 0.0 
0.2 0.05 0.01 
0.15999999999999973 0.049999999999999996 0.02 
0.27999999999999997 0.0 0.0 
0.24 0.0 0.01 
0.2 0.0 0.02 
0.27999999999999986 0.05 0.0 
0.24 0.05 0.01 
0.1999999999999998 0.05 0.02 
0.32 0.0 0.0 
0.27999999999999997 0.0 0.009999999999999998 
0.24 0.0 0.02 
0.31999999999999984 0.04999999999999999 0.0 
0.28 0.05 0.01 
0.23999999999999982 0.05 0.019999999999999997 
0.36 0.0 0.0 
0.32 0.0 0.01 
0.27999999999999997 0.0 0.019999999999999997 
0.35999999999999993 0.05000000000000001 0.0 
0.32 0.05 0.01 
0.27999999999999986 0.05 0.02 
0.39999999999999997 0.0 0.0 
0.36 0.0 0.01 
0.32 0.0 0.02 
0.3999999999999999 0.05 0.0 
0.36 0.05 0.01 
0.31999999999999984 0.04999999999999999 0.019999999999999993 
0.4399999999999999 0.0 0.0 
0.4 0.0 0.01 
0.36 0.0 0.02 
0.44000000000000006 0.05 0.0 
0.4 0.05 0.01 
0.35999999999999993 0.05000000000000001 0.020000000000000004 
0.48 0.0 0.0 
0.4399999999999999 0.0 0.01 
0.39999999999999997 0.0 0.02 
0.48 0.05 0.0 
0.43999999999999995 0.05 0.01 
0.3999999999999999 0.05 0.02 
0.5199999999999999 0.0 0.0 
0.4799999999999999 0.0 0.01 
0.4399999999999999 0.0 0.02 
0.5199999999999999 0.04999999999999999 0.0 
0.4799999999999999 0.05 0.01 
0.44000000000000006 0.05 0.020000000000000004 
0.5599999999999999 0.0 0.0 
0.5199999999999999 0.0 0.01 
0.48 0.0 0.020000000000000004 
0.56 0.05 0.0 
0.5199999999999999 0.05 0.01 
0.48 0.05 0.02 
0.5999999999999998 0.0 0.0 
0.5599999999999999 0.0 0.01 
0.5199999999999999 0.0 0.020000000000000004 
0.6 0.05 0.0 
0.56 0.05 0.01 
0.5199999999999999 0.04999999999999999 0.019999999999999997 
0.6399999999999998 0.0 0.0 
0.5999999999999998 0.0 0.01 
0.5599999999999999 0.0 0.02 
0.6400000000000001 0.05 0.0 
0.5999999999999998 0.05 0.01 
0.56 0.05 0.02 
0.6799999999999997 0.0 0.0 
0.6399999999999997 0.0 0.01 
0.5999999999999998 0.0 0.019999999999999997 
0.68 0.05 0.0 
0.6399999999999997 0.05 0.01 
0.6 0.05 0.02 
0.7199999999999999 0.0 0.0 
0.6799999999999997 0.0 0.009999999999999998 
0.6399999999999998 0.0 0.02 
0.7200000000000001 0.05 0.0 
0.6799999999999997 0.05 0.01 
0.6400000000000001 0.05 0.020000000000000004 
0.7599999999999998 0.0 0.0 
0.7199999999999999 0.0 0.01 
0.6799999999999997 0.0 0.019999999999999997 
0.7600000000000001 0.05000000000000001 0.0 
0.7199999999999998 0.05 0.01 
0.68 0.05 0.02 
0.7999999999999999 0.0 0.0 
0.7599999999999998 0.0 0.01 
0.7199999999999999 0.0 0.02 
0.8 0.05 0.0 
0.7599999999999999 0.05 0.01 
0.7200000000000001 0.05 0.020000000000000004 
0.8399999999999999 0.0 0.0 
0.7999999999999998 0.0 0.01 
0.7599999999999998 0.0 0.02 
0.8400000000000001 0.05 0.0 
0.7999999999999997 0.05 0.01 
0.7600000000000001 0.05000000000000001 0.02 
0.88 0.0 0.0 
0.8399999999999999 0.0 0.01 
0.7999999999999999 0.0 0.02 
0.8799999999999999 0.05 0.0 
0.8399999999999997 0.05 0.01 
0.8 0.05 0.02 
0.92 0.0 0.0 
0.88 0.0 0.01 
0.8399999999999999 0.0 0.020000000000000004 
0.9199999999999998 0.04999999999999999 0.0 
0.88 0.05 0.01 
0.8400000000000001 0.05 0.020000000000000004 
0.96 0.0 0.0 
0.92 0.0 0.01 
0.88 0.0 0.020000000000000004 
0.9600000000000001 0.05000000000000001 0.0 
0.9200000000000002 0.05 0.01 
0.8799999999999999 0.05 0.02 
1.0 0.0 0.0 
0.96 0.0 0.01 
0.92 0.0 0.02 
1.0 0.05 0.0 
0.9599999999999999 0.05 0.01 
0.9199999999999998 0.04999999999999999 0.019999999999999997 
1.0 0.0 0.009999999999999998 
0.96 0.0 0.02 
1.0 0.05 0.009999999999999998 
0.9600000000000001 0.05000000000000001 0.020000000000000004 
1.0 0.0 0.02 
1.0 0.05 0.02 
0.0 0.0 0.004999999999999999 
0.0 0.0 0.015 
0.0 0.025 0.0 
0.019999999999999997 0.0 0.0 
0.05999999999999999 0.0 0.0 
0.09999999999999998 0.0 0.0 
0.13999999999999996 0.0 0.0 
0.18 0.0 0.0 
0.22 0.0 0.0 
0.26 0.0 0.0 
0.3 0.0 0.0 
0.33999999999999997 0.0 0.0 
0.38 0.0 0.0 
0.41999999999999993 0.0 0.0 
0.45999999999999996 0.0 0.0 
0.49999999999999994 0.0 0.0 
0.5399999999999999 0.0 0.0 
0.5799999999999998 0.0 0.0 
0.6199999999999998 0.0 0.0 
0.6599999999999997 0.0 0.0 
0.6999999999999997 0.0 0.0 
0.7399999999999998 0.0 0.0 
0.7799999999999998 0.0 0.0 
0.8199999999999998 0.0 0.0 
0.8599999999999999 0.0 0.0 
0.9 0.0 0.0 
0.94 0.0 0.0 
0.98 0.0 0.0 
0.0 0.025 0.02 
0.019999999999999997 0.0 0.02 
0.05999999999999999 0.0 0.02 
0.09999999999999998 0.0 0.02 
0.13999999999999996 0.0 0.020000000000000004 
0.18 0.0 0.020000000000000004 
0.22 0.0 0.02 
0.26 0.0 0.019999999999999997 
0.3 0.0 0.019999999999999997 
0.33999999999999997 0.0 0.02 
0.38 0.0 0.02 
0.41999999999999993 0.0 0.02 
0.45999999999999996 0.0 0.020000000000000004 
0.49999999999999994 0.0 0.020000000000000004 
0.5399999999999999 0.0 0.020000000000000004 
0.5799999999999998 0.0 0.019999999999999997 
0.6199999999999998 0.0 0.019999999999999997 
0.6599999999999997 0.0 0.019999999999999997 
0.6999999999999997 0.0 0.019999999999999997 
0.7399999999999998 0.0 0.02 
0.7799999999999998 0.0 0.02 
0.8199999999999998 0.0 0.020000000000000004 
0.8599999999999999 0.0 0.020000000000000004 
0.9 0.0 0.020000000000000004 
0.94 0.0 0.02 
0.98 0.0 0.02 
0.0 0.05 0.004999999999999999 
0.0 0.05 0.015 
0.01999999999999981 0.05 0.0 
0.05999999999999964 0.05 0.0 
0.0999999999999997 0.05 0.0 
0.13999999999999974 0.05 0.0 
0.17999999999999977 0.05 0.0 
0.2199999999999998 0.05 0.0 
0.25999999999999984 0.05 0.0 
0.2999999999999998 0.049999999999999996 0.0 
0.33999999999999986 0.05 0.0 
0.3799999999999999 0.05 0.0 
0.42 0.05 0.0 
0.46 0.05 0.0 
0.49999999999999994 0.049999999999999996 0.0 
0.54 0.049999999999999996 0.0 
0.5800000000000001 0.05 0.0 
0.6200000000000001 0.05 0.0 
0.6600000000000001 0.05 0.0 
0.7000000000000001 0.05 0.0 
0.7400000000000001 0.05 0.0 
0.78 0.05 0.0 
0.8200000000000001 0.05 0.0 
0.86 0.05 0.0 
0.8999999999999999 0.049999999999999996 0.0 
0.94 0.05 0.0 
0.98 0.05 0.0 
0.01999999999999981 0.05 0.020000000000000004 
0.05999999999999964 0.05 0.020000000000000004 
0.0999999999999997 0.05 0.020000000000000004 
0.13999999999999974 0.05 0.020000000000000004 
0.17999999999999977 0.05 0.02 
0.2199999999999998 0.05 0.019999999999999997 
0.25999999999999984 0.05 0.019999999999999997 
0.2999999999999998 0.049999999999999996 0.019999999999999997 
0.33999999999999986 0.05 0.019999999999999997 
0.3799999999999999 0.05 0.020000000000000004 
0.42 0.05 0.020000000000000004 
0.46 0.05 0.020000000000000004 
0.49999999999999994 0.049999999999999996 0.019999999999999997 
0.54 0.049999999999999996 0.019999999999999997 
0.5800000000000001 0.05 0.02 
0.6200000000000001 0.05 0.020000000000000004 
0.6600000000000001 0.05 0.020000000000000004 
0.7000000000000001 0.05 0.020000000000000004 
0.7400000000000001 0.05 0.020000000000000004 
0.78 0.05 0.02 
0.8200000000000001 0.05 0.020000000000000004 
0.86 0.05 0.020000000000000004 
0.8999999999999999 0.049999999999999996 0.019999999999999997 
0.94 0.05 0.02 
0.98 0.05 0.020000000000000004 
1.0 0.0 0.004999999999999999 
1.0 0.0 0.015 
1.0 0.025 0.0 
1.0 0.025 0.02 
1.0 0.05 0.004999999999999999 
1.0 0.05 0.015 
0.0 0.025 0.004999999999999999 
0.0 0.025 0.009999999999999998 
0.0 0.025 0.015 
0.019999999999999997 0.0 0.004999999999999999 
0.039999999999999994 0.0 0.005 
0.02 0.0 0.009999999999999998 
0.059999999999999984 0.0 0.005 
0.07999999999999999 0.0 0.005 
0.059999999999999984 0.0 0.01 
0.019999999999999997 0.0 0.015 
0.039999999999999994 0.0 0.015 
0.09999999999999998 0.0 0.005 
0.11999999999999997 0.0 0.005 
0.09999999999999998 0.0 0.01 
0.05999999999999999 0.0 0.015 
0.07999999999999999 0.0 0.015 
0.13999999999999996 0.0 0.005 
0.15999999999999998 0.0 0.005 
0.13999999999999996 0.0 0.01 
0.09999999999999998 0.0 0.015 
0.11999999999999997 0.0 0.015 
0.18 0.0 0.005 
0.2 0.0 0.005 
0.18 0.0 0.01 
0.13999999999999996 0.0 0.015000000000000001 
0.15999999999999998 0.0 0.015000000000000003 
0.22 0.0 0.005 
0.24 0.0 0.005 
0.22 0.0 0.01 
0.18 0.0 0.015000000000000003 
0.2 0.0 0.015 
0.26 0.0 0.004999999999999999 
0.27999999999999997 0.0 0.004999999999999999 
0.26 0.0 0.009999999999999998 
0.22 0.0 0.015 
0.24 0.0 0.015 
0.3 0.0 0.004999999999999999 
0.32 0.0 0.005 
0.3 0.0 0.009999999999999998 
0.26 0.0 0.014999999999999998 
0.27999999999999997 0.0 0.014999999999999998 
0.33999999999999997 0.0 0.005 
0.36 0.0 0.005 
0.33999999999999997 0.0 0.01 
0.3 0.0 0.015 
0.32 0.0 0.015 
0.38 0.0 0.005 
0.4 0.0 0.005 
0.38 0.0 0.01 
0.33999999999999997 0.0 0.015 
0.36 0.0 0.015 
0.41999999999999993 0.0 0.005 
0.4399999999999999 0.0 0.005 
0.41999999999999993 0.0 0.01 
0.38 0.0 0.015 
0.4 0.0 0.015 
0.45999999999999996 0.0 0.005 
0.48 0.0 0.005 
0.4599999999999999 0.0 0.01 
0.41999999999999993 0.0 0.015 
0.4399999999999999 0.0 0.015 
0.4999999999999999 0.0 0.005 
0.5199999999999999 0.0 0.005 
0.4999999999999999 0.0 0.01 
0.4599999999999999 0.0 0.015000000000000001 
0.48 0.0 0.015000000000000003 
0.5399999999999999 0.0 0.005 
0.5599999999999999 0.0 0.005 
0.5399999999999999 0.0 0.01 
0.4999999999999999 0.0 0.015000000000000003 
0.5199999999999999 0.0 0.015000000000000003 
0.5799999999999998 0.0 0.005 
[...]
POINT_DATA 765
VECTORS eigenmode1 float
0.0 0.0 0.0 
0.0 0.0 0.0 
-0.0012464850329383078 -0.00022250259097049283 -0.0022938246771492636 
0.0 0.0 0.0 
-0.0012464850334286191 0.00022250259100621268 -0.0022938246778297085 
0.0 0.0 0.0 
-0.0024834696584212904 -0.00022445447427440742 -0.009786891828045608 
1.7414796818146505e-13 1.5196139702480793e-13 -0.0022538583388622677 
0.0 0.0 0.0 
-0.00248346965925804 0.00022445447484380817 -0.009786891829514416 
-1.7691230425054272e-13 1.5250989490386835e-13 -0.0022538583395193138 
0.0 0.0 0.0 
-0.0036490582283853616 -0.00021151983840836473 -0.022094195885792763 
3.4348587342469816e-13 5.758544682765709e-13 -0.009742849080487349 
0.0012464850332842253 0.00022250259126947367 -0.0022938246771734214 
-0.0036490582295450194 0.000211519840040733 -0.022094195888050974 
-3.4911917107249835e-13 5.764028577354141e-13 -0.009742849081931387 
0.001246485033077207 -0.0002225025907061221 -0.0022938246778052163 
-0.004740467607076403 -0.00019769681455626513 -0.03891530400726818 
5.034507966766855e-13 1.2652262050549812e-12 -0.022051987766590612 
0.0024834696591079296 0.0002244544754210747 -0.009786891828070344 
-0.0047404676085383325 0.00019769681775226935 -0.03891530401031375 
-5.119739267950285e-13 1.2657960617168396e-12 -0.022051987768825426 
0.002483469658560153 -0.0002244544736960143 -0.009786891829489372 
-0.005757938913804262 -0.0001838786350236571 -0.05995392622825353 
6.532183648155776e-13 2.2046912906414917e-12 -0.03887577239309731 
0.003649058229392141 0.00021151984093412774 -0.022094195885816074 
-0.005757938915548978 0.00018387864025034423 -0.05995392623208799 
-6.646870553961293e-13 2.205262882026826e-12 -0.038875772396121035 
0.003649058228521247 -0.00021151983751388536 -0.022094195888027274 
-0.00670188519726311 -0.00017014691588944364 -0.08491510070533255 
7.929501239650749e-13 3.3779541663836454e-12 -0.05991715368571854 
0.004740467608382665 0.00019769681896125886 -0.038915304007289965 
-0.0067018851992687485 0.0001701469235831296 -0.08491510070995412 
-8.071993594371829e-13 3.3785396355567876e-12 -0.05991715368953268 
0.004740467607209066 -0.00019769681334618578 -0.03891530401029165 
-0.007572886991481229 -0.00015654269376951836 -0.11350578455028608 
9.225788535904833e-13 4.76895432865998e-12 -0.08488107619944549 
0.005757938915389959 0.00018387864177539862 -0.059953926228273946 
-0.007572886993727747 0.00015654270433740694 -0.11350578455568558 
-9.397829736634833e-13 4.7696620958381786e-12 -0.08488107620404857 
0.005757938913934597 -0.0001838786334973485 -0.059953926232067495 
-0.008371735797243207 -0.00014310917338351825 -0.14543565458490595 
1.0423870967779525e-12 6.361808649324452e-12 -0.11347448269624878 
0.006701885199108132 0.0001701469254235359 -0.08491510070535155 
-0.008371735799709618 0.00014310918720249893 -0.1454356545910717 
-1.062466087331515e-12 6.362499069267891e-12 -0.11347448270163114 
0.006701885197389264 -0.00017014691404755589 -0.08491510070993574 
-0.009099464191078844 -0.0001298941015590166 -0.18041801986490716 
1.1525624205033225e-12 8.140786655896903e-12 -0.14540704132427626 
0.0075728869935657635 0.0001565427064897252 -0.11350578455030366 
-0.009099464193749518 0.0001298941189749256 -0.1804180198718291 
-1.1756025840303774e-12 8.141425034136063e-12 -0.1454070413304265 
0.00757288699160274 -0.00015654269161592162 -0.11350578455566866 
-0.009757371549819049 -0.00011694970883834033 -0.21817083951249575 
1.2530250274866983e-12 1.0090605434553979e-11 -0.18039205166517505 
0.008371735799548185 0.0001431091896617019 -0.1454356545849224 
-0.00975737155267305 0.00011694973016170007 -0.21817083952017585 
-1.2791070286288786e-12 1.0091202179429715e-11 -0.18039205167208253 
0.008371735797358813 -0.0001431091709226881 -0.14543565459105656 
-0.01034704727241648 -0.00010433235701753224 -0.2584178376832063 
1.3437636420254861e-12 1.2195942172832375e-11 -0.21814746239754423 
0.009099464193584822 0.00012989412173700782 -0.18041801986492245 
-0.010347047275429688 0.0001043323825349815 -0.25841783769162446 
-1.3728449800576303e-12 1.219644871208736e-11 -0.21814746240521146 
0.009099464191191786 -0.0001298940987950227 -0.18041801987181563 
-0.010870391766200999 -9.21021379093126e-5 -0.30088970686980504 
1.4242049380108757e-12 1.4440677820193315e-11 -0.2583969863908676 
0.009757371552506283 0.00011694973322758095 -0.218170839512509 
-0.010870391769357748 9.210216787354508e-5 -0.3008897068789464 
-1.4564751314727342e-12 1.4441406404053225e-11 -0.2583969863992735 
0.009757371549927766 -0.00011694970577107167 -0.21817083952016303 
-0.011329635261851259 -8.03224726335719e-5 -0.3453253907798393 
1.494794305695324e-12 1.6809303948761567e-11 -0.30087130410401036 
0.010347047275264663 0.00010433238589679233 -0.2584178376832182 
-0.011329635265124947 8.03225072660424e-5 -0.3453253907896832 
-1.5296635486050647e-12 1.680963007677505e-11 -0.30087130411314233 
0.010347047272516747 -0.00010433235365477772 -0.25841783769161175 
-0.01172735451506688 -6.905972187134374e-5 -0.39147343821107145 
1.5548326515180122e-12 1.9284032704014464e-11 -0.3453093465450365 
0.010870391769190479 9.210217152511718e-5 -0.3008897068698161 
-0.01172735451844467 6.905976136041547e-5 -0.3914734382216042 
-1.5928014115984546e-12 1.9284705776723143e-11 -0.34530934655487233 
0.010870391766298107 -9.210213425565189e-5 -0.30088970687893773 
-0.012066487465132425 -5.8382810350608716e-5 -0.43909341960448234 
1.6055299451034344e-12 2.184995240295251e-11 -0.3914596492248648 
0.011329635264961254 8.032251119918093e-5 -0.34532539077984925 
-0.012066487468581102 5.838285485685463e-5 -0.43909341961567444 
-1.6466663102510104e-12 2.18508197646905e-11 -0.39145964923539067 
0.011329635261939095 -8.032246869792842e-5 -0.34532539078967656 
-0.012350345932193673 -4.836286784841437e-5 -0.4879573982589701 
1.6463349780670988e-12 2.449027092232825e-11 -0.43908176878547917 
0.011727354518278174 6.905976557069343e-5 -0.39147343821107766 
-0.012350345935706449 4.836291750938415e-5 -0.48795739827077494 
-1.689552144024109e-12 2.449170727336636e-11 -0.4390817687966659 
0.011727354515152265 -6.905971766078128e-5 -0.3914734382215967 
-0.012582626447232426 -3.90728888277625e-5 -0.5378514485444557 
1.6792929893871822e-12 2.7190125151399513e-11 -0.4879477542865 
0.012066487468424272 5.838285933114362e-5 -0.43909341960448667 
-0.012582626450791796 3.907294375139758e-5 -0.5378514485568405 
-1.7232239940545568e-12 2.7190860674153328e-11 -0.48794775429829845 
0.01206648746520263 -5.8382805875729915e-5 -0.4390934196156679 
-0.012767419319826294 -3.058741307383761e-5 -0.5885772138467752 
1.7046138806042777e-12 2.99379687707102e-11 -0.5378436654864579 
0.012350345935550726 4.836292222792915e-5 -0.48795739825897627 
-0.012767419323425996 3.058747333968548e-5 -0.5885772138597235 
-1.7516205499945592e-12 2.993846837107128e-11 -0.5378436654988378 
0.012350345932258578 -4.8362863129036704e-5 -0.48795739827076884 
-0.012909216062276498 -2.298222963027785e-5 -0.6399534974261791 
1.7241711530724402e-12 3.2722130560713936e-11 -0.5885711308516581 
0.012582626450640962 3.907294870206246e-5 -0.5378514485444622 
-0.012909216065911285 2.2982295290074894e-5 -0.639953497439706 
-1.7725907547339048e-12 3.272249138319694e-11 -0.5885711308646039 
0.012582626447288543 -3.907288387457186e-5 -0.5378514485568386 
-0.013012915299803656 -1.6334106194379472e-5 -0.6918178798681107 
1.7395373336226427e-12 3.553445038217973e-11 -0.6399489384739723 
0.012767419323274853 3.058747851708565e-5 -0.5885772138467797 
-0.013012915303450421 1.633417730415032e-5 -0.6918178798821816 
-1.7881434180577749e-12 3.553486671581396e-11 -0.639948938487497 
0.01276741931988137 -3.0587407894994145e-5 -0.5885772138597223 
-0.013083827309884286 -1.0720545981543483e-5 -0.7440283573526859 
1.7519813724775624e-12 3.83680448523549e-11 -0.6918146535750977 
0.012909216065755992 2.2982300696430813e-5 -0.6399534974261859 
-0.013083827313538514 1.0720622612023223e-5 -0.7440283573672231 
-1.8022345768531345e-12 3.8369460386711296e-11 -0.6918146535891666 
0.012909216062334422 -2.298222421853735e-5 -0.6399534974397082 
-0.013127677366488451 -6.219572256133121e-6 -0.7964649956013646 
1.7619013886749357e-12 4.122165109254894e-11 -0.7440262568164666 
0.013012915303307677 1.6334182931093677e-5 -0.6918178798681135 
-0.01312767737017238 6.219654447581213e-6 -0.7964649956163454 
-1.8145146843395743e-12 4.122273355999795e-11 -0.744026256831003 
0.013012915299845895 -1.6334100566270382e-5 -0.6918178798821816 
-0.013150608321006504 -2.9095357056835303e-6 -0.84903159530981 
1.7713972649824328e-12 4.4091147399782926e-11 -0.7964637982223072 
0.013083827313408358 1.0720628424762402e-5 -0.7440283573526879 
-0.01315060832469607 2.909623482011403e-6 -0.849031595325251 
-1.8255579339876427e-12 4.4092354767322206e-11 -0.7964637982372855 
0.013083827309909313 -1.072054016619528e-5 -0.7440283573672257 
-0.013159184880451192 -8.687529316209197e-7 -0.9016573677181698 
1.777064606578449e-12 4.6975118239700464e-11 -0.8490310622645513 
0.013127677370030452 6.219660437484231e-6 -0.7964649956013696 
-0.013159184884105966 8.688463733474983e-7 -0.901657367733921 
-1.834045935955597e-12 4.6976894596539864e-11 -0.8490310622799904 
0.013127677366522077 -6.2195662627467785e-6 -0.796464995616347 
-0.013160412749460825 -1.7007599611984503e-7 -0.9542986310438667 
1.7803996124610144e-12 4.987084356589122e-11 -0.9016572423487317 
0.013150608324560095 2.9096296556008205e-6 -0.8490315953098149 
-0.01316041275309138 1.701751866922674e-7 -0.9542986310597363 
-1.8391095937819735e-12 4.987153745528161e-11 -0.9016572423644844 
0.013150608321027726 -2.9095295285830325e-6 -0.8490315953252517 
1.7781557476448384e-12 5.2765625202511046e-11 -0.9542986459547491 
0.013159184884011323 8.688526714900613e-7 -0.9016573677181744 
-1.841772394317598e-12 5.2768928116009306e-11 -0.9542986459706194 
0.013159184880427702 -8.687466288709311e-7 -0.9016573677339276 
0.01316041275302075 1.701815288968067e-7 -0.9542986310438681 
0.013160412749410117 -1.7006965025156973e-7 -0.954298631059737 
0.0 0.0 0.0 
0.0 0.0 0.0 
0.0 0.0 0.0 
-0.0005927477813598358 -0.00019062845872812537 -0.0004984038698488238 
-0.0018701879225099449 -0.00022890193030429578 -0.00542343272208083 
-0.0030731017236889265 -0.00021834593598699516 -0.0153581615967282 
-0.004201606885233154 -0.00020463353405434596 -0.029959107042629052 
-0.005256011717835353 -0.00019078251933410655 -0.04892590163876747 
-0.00623667503366089 -0.0001769995740722348 -0.07196256534721884 
-0.007144086304469346 -0.0001633258921214728 -0.09877497523266152 
-0.007978927891458425 -0.00014980114639486126 -0.1290713387861506 
-0.008742109276301566 -0.0001364704408630367 -0.16256302790621635 
-0.009434794195072305 -0.0001233837514953949 -0.19896554313505124 
-0.010058425001811174 -0.0001105954192635629 -0.23799958099821833 
-0.010614744764965597 -9.816372232906295e-5 -0.27939219422230244 
-0.011105817165708711 -8.615046785975106e-5 -0.3228780359061823 
-0.011534044251192609 -7.46205957768073e-5 -0.3682006789536506 
-0.01190218210784799 -6.364179584390783e-5 -0.41511400230942236 
-0.012213354531184216 -5.328414009761473e-5 -0.46338363582415015 
-0.012471064780300502 -4.3619732931890476e-5 -0.5127884559023805 
-0.012679205516381017 -3.4722380886115234e-5 -0.5631221244632895 
-0.01284206703725457 -2.666728467709545e-5 -0.6141946641646687 
-0.01296434393226301 -1.9530755585514536e-5 -0.6658340633150405 
-0.01305114029398245 -1.3389958794296497e-5 -0.7178879044182148 
-0.013107973637471912 -8.322688468662132e-6 -0.770225010861704 
-0.013140777698983239 -4.4071973703263545e-6 -0.822737106861523 
-0.013155904373830948 -1.7221842498471585e-6 -0.8753404865110327 
-0.013160125499600812 -3.4645199761818013e-7 -0.9279776914183574 
0.0 0.0 0.0 
0.0005927477815277915 0.00019062845881895178 -0.0004984038698779809 
0.001870187923029014 0.00022890193095988904 -0.005423432722106353 
0.003073101724538129 0.00021834593775880832 -0.015358161596752198 
0.004201606886392131 0.00020463353745922433 -0.02995910704265152 
0.005256011719283742 0.000190782524856015 -0.04892590163878848 
0.006236675035378595 0.0001769995821628064 -0.07196256534723813 
0.007144086306436457 0.00016332590320028775 -0.0987749752326792 
0.007978927893655504 0.00014980116084959555 -0.12907133878616672 
0.008742109278709376 0.00013647045905068253 -0.1625630279062308 
0.009434794197671457 0.00012338377374239776 -0.19896554313506426 
0.010058425004581435 0.00011059544586494718 -0.2379995809982297 
0.010614744767886937 9.816375354820134e-5 -0.279392194222312 
0.011105817168760468 8.61505039269142e-5 -0.3228780359061898 
0.011534044254355526 7.462063688839365e-5 -0.36820067895365816 
0.011902182111101802 6.364184216693658e-5 -0.4151140023094284 
0.012213354534510765 5.3284191764139954e-5 -0.46338363582415487 
0.01247106478368535 4.361979004997851e-5 -0.5127884559023818 
0.012679205519811037 3.472244353833198e-5 -0.5631221244632898 
0.012842067040719298 2.666735292734812e-5 -0.614194664164668 
0.012964343935755566 1.9530829482861112e-5 -0.6658340633150414 
0.013051140297497044 1.3390038380065028e-5 -0.7178879044182132 
0.013107973641005074 8.322773776242576e-6 -0.7702250108617057 
0.013140777702531612 4.407288434912782e-6 -0.8227371068615226 
0.013155904377389144 1.7222810931166732e-6 -0.8753404865110325 
0.01316012550316006 3.465546386527407e-7 -0.9279776914183538 
0.0 0.0 0.0 
0.0 0.0 0.0 
-0.0005927477816414542 0.0001906284587086632 -0.0004984038701558287 
-0.0018701879231767075 0.0002289019305408229 -0.005423432723155999 
-0.003073101724689678 0.00021834593702359738 -0.015358161598591824 
-0.004201606886546288 0.00020463353640803308 -0.029959107045281097 
-0.005256011719441089 0.0001907825234892021 -0.04892590164220714 
-0.006236675035538571 0.00017699958047953483 -0.07196256535144814 
-0.0071440863065976076 0.00016332590120321164 -0.09877497523767377 
-0.007978927893817381 0.00014980115854248272 -0.1290713387919367 
-0.008742109278872305 0.00013647045643955594 -0.16256302791276026 
-0.009434794197837739 0.00012338377082766333 -0.19896554314235299 
-0.010058425004747091 0.0001105954426493666 -0.23799958100627178 
-0.010614744768053278 9.816375004099986e-5 -0.27939219423108164 
-0.011105817168925846 8.615050013171394e-5 -0.32287803591568087 
-0.011534044254520927 7.462063281653275e-5 -0.36820067896384023 
-0.011902182111264628 6.364183782189142e-5 -0.4151140023202949 
-0.012213354534666706 5.328418716828154e-5 -0.46338363583564707 
-0.012471064783837936 4.361978521180698e-5 -0.5127884559144791 
-0.012679205519962024 3.472243847311984e-5 -0.5631221244759553 
-0.012842067040873567 2.666734763555334e-5 -0.6141946641778991 
-0.012964343935904264 1.9530823961125265e-5 -0.6658340633288499 
-0.013051140297633816 1.3390032655130613e-5 -0.7178879044325303 
-0.013107973641139727 8.322767878474191e-6 -0.7702250108764528 
-0.013140777702671615 4.407282349350172e-6 -0.8227371068767416 
-0.013155904377504614 1.7222748422557332e-6 -0.8753404865266675 
-0.013160125503243358 3.4654830433078487e-7 -0.9279776914341926 
0.0005927477814707244 -0.00019062845861685817 -0.0004984038701261807 
0.001870187922649256 -0.00022890192988414727 -0.005423432723130023 
0.003073101723826328 -0.00021834593525067877 -0.015358161598567364 
0.00420160688536733 -0.00020463353300200719 -0.029959107045258178 
0.005256011717966897 -0.00019078251796610102 -0.048925901642185674 
0.00623667503378922 -0.00017699957238786167 -0.07196256535142798 
0.007144086304593031 -0.00016332589012344953 -0.09877497523765481 
0.007978927891577137 -0.00014980114408695393 -0.12907133879191862 
0.008742109276415498 -0.00013647043825126826 -0.16256302791274385 
0.009434794195183675 -0.0001233837485797619 -0.1989655431423384 
0.010058425001915571 -0.00011059541604674372 -0.23799958100625848 
0.01061474476506454 -9.816371882111902e-5 -0.27939219423107037 
0.0111058171658007 -8.615046406400956e-5 -0.32287803591566977 
0.011534044251279345 -7.462059170439128e-5 -0.36820067896382974 
0.011902182107926654 -6.364179149746102e-5 -0.41511400232028794 
0.01221335453125182 -5.3284135499619134e-5 -0.46338363583564296 
0.012471064780360759 -4.3619728094718146e-5 -0.5127884559144728 
0.01267920551643688 -3.4722375821208407e-5 -0.5631221244759501 
0.012842067037311923 -2.6667279384648412e-5 -0.6141946641778965 
0.01296434393231347 -1.9530750063181945e-5 -0.665834063328845 
0.013051140294016716 -1.338995306975066e-5 -0.7178879044325235 
0.01310797363749935 -8.322682568465134e-6 -0.7702250108764486 
0.013140777699011043 -4.407191283931078e-6 -0.8227371068767378 
0.013155904373830095 -1.7221779971543505e-6 -0.8753404865266649 
0.013160125499562018 -3.4644566665464893e-7 -0.927977691434189 
-0.00658016871547099 -7.519436395764245e-8 -0.9542986366354119 
0.006580168719027817 7.529989584642571e-8 -0.954298636635412 
-0.013160410574132303 4.9595993978357455e-11 -0.9542988827218052 
0.013160410574073508 5.593861485131413e-11 -0.9542988827218085 
-0.006580168719097055 7.52967271866467e-8 -0.9542986366512822 
0.006580168715413472 -7.51911898855262e-8 -0.9542986366512815 
0.0 0.0 0.0 
0.0 0.0 0.0 
0.0 0.0 0.0 
-0.00030127555472502215 -9.831288093618789e-5 -0.00045359863728825596 
-0.0006229107696079962 -0.00011106294106425507 -0.002263584693769608 
8.23878996709243e-14 4.836902363011819e-14 -0.00043854455922783615 
-0.0009343169483621937 -0.00011458108837098603 -0.005387628524973366 
-0.0012404954608986243 -0.0001122581392716494 -0.009753877161114772 
2.5950053737788803e-13 3.3034892096134305e-13 -0.005375715992276015 
0.0003012755548903918 9.831288103143851e-5 -0.0004535986373026482 
0.00062291076995607 0.00011106294136695497 -0.0022635846937820326 
-0.0015357090604717787 -0.00010916764217701325 -0.015325274453954266 
-0.0018229542392587655 -0.00010577437796871177 -0.022062561580374576 
4.2470356658580455e-13 8.883258711955833e-13 -0.01531433826454889 
0.0009343169488810821 0.00011458108903040186 -0.005387628524986009 
0.0012404954615856671 0.00011225814042210695 -0.009753877161127255 
-0.002100005326794702 -0.00010231393135235042 -0.02992840103406346 
-0.002368598158844693 -9.885147305934566e-5 -0.03888566188015379 
5.795899784416525e-13 1.7047058209485044e-12 -0.02991817365290883 
0.0015357090613211037 0.00010916764395245545 -0.01532527445396626 
0.0018229542402656783 0.00010577438049799628 -0.022062561580386237 
-0.0026272185674845396 -9.539049841059306e-5 -0.04889728442283142 
-0.0028773334628526964 -9.193945299830388e-5 -0.05992634798449249 
7.242587606037798e-13 2.7630441337689327e-12 -0.048887746672773624 
0.0021000053279538284 0.00010231393476063493 -0.029928401034074743 
0.002368598160151103 9.885147746761976e-5 -0.038885661880164624 
-0.0031175561250854147 -8.849938988442739e-5 -0.07193601699142495 
-0.003349318573667006 -8.50728678140171e-5 -0.08488958212024848 
8.589290303312458e-13 4.0472208917563535e-12 -0.07192716714284948 
0.0026272185689330332 9.539050393565177e-5 -0.04889728442284195 
0.002877333464438547 9.19394597531471e-5 -0.05992634798450265 
-0.0035712690577495237 -8.166251338952157e-5 -0.09875047864572101 
-0.0037848370530229455 -7.82704401052891e-5 -0.11348230756096321 
9.836797175422074e-13 5.541154340926724e-12 -0.09874231217123215 
0.0031175561268032446 8.849939797788905e-5 -0.0719360169914346 
0.003349318575512135 8.507287735100635e-5 -0.084889582120258 
-0.003988699542801062 -7.490002424840117e-5 -0.1290488716318785 
-0.004184284460576335 -7.155341051969313e-5 -0.14541419382377535 
1.0986190256134787e-12 7.228891096833223e-12 -0.12904138128459272 
0.003571269059716801 8.166252447094728e-5 -0.0987504786457299 
0.00378483705510775 7.827045282810322e-5 -0.11348230756097183 
-0.004370302644971433 -6.823453186433417e-5 -0.16254256114016596 
-0.004548177597977164 -6.494559189585553e-5 -0.18039854269906405 
1.203986563225179e-12 9.095321718000093e-12 -0.16253573724605266 
0.003988699544998238 7.490003870537498e-5 -0.1290488716318866 
0.004184284462881471 7.155342680043378e-5 -0.14541419382378354 